nqpoint: 51     
npath: 1      
segment_nqpoint:
- 51
reciprocal_lattice:
- [   0.17573761,   0.00000000,   0.00000000 ] # a*
- [   0.00000000,   0.17573761,   0.00000000 ] # b*
- [   0.00000000,   0.00000000,   0.17573761 ] # c*
natom: 8      
lattice:
- [     5.690301476175671,     0.000000000000000,     0.000000000000000 ] # a
- [     0.000000000000000,     5.690301476175671,     0.000000000000000 ] # b
- [     0.000000000000000,     0.000000000000000,     5.690301476175671 ] # c
points:
- symbol: Na # 1
  coordinates: [  0.000000000000000,  0.000000000000000,  0.000000000000000 ]
  mass: 22.989769
- symbol: Na # 2
  coordinates: [  0.000000000000000,  0.500000000000000,  0.500000000000000 ]
  mass: 22.989769
- symbol: Na # 3
  coordinates: [  0.500000000000000,  0.000000000000000,  0.500000000000000 ]
  mass: 22.989769
- symbol: Na # 4
  coordinates: [  0.500000000000000,  0.500000000000000,  0.000000000000000 ]
  mass: 22.989769
- symbol: Cl # 5
  coordinates: [  0.500000000000000,  0.500000000000000,  0.500000000000000 ]
  mass: 35.453000
- symbol: Cl # 6
  coordinates: [  0.500000000000000,  0.000000000000000,  0.000000000000000 ]
  mass: 35.453000
- symbol: Cl # 7
  coordinates: [  0.000000000000000,  0.500000000000000,  0.000000000000000 ]
  mass: 35.453000
- symbol: Cl # 8
  coordinates: [  0.000000000000000,  0.000000000000000,  0.500000000000000 ]
  mass: 35.453000
supercell_matrix:
- [    4,    0,    0 ]
- [    0,    4,    0 ]
- [    0,    0,    4 ]

phonon:
- q-position: [    4.0000000,    0.0000000,    0.0000000 ]
  distance:    0.0000000
  band:
  - # 1
    frequency:   -0.1554240268
    eigenvector:
    - # atom 1
      - [ -0.00060263081531,  0.00000000000000 ]
      - [ -0.29703849411148, -0.00000000000000 ]
      - [ -0.10995734253729,  0.00000000000000 ]
    - # atom 2
      - [ -0.00060263081531, -0.00000000000000 ]
      - [ -0.29703849411148, -0.00000000000000 ]
      - [ -0.10995734253729,  0.00000000000000 ]
    - # atom 3
      - [ -0.00060263081531,  0.00000000000000 ]
      - [ -0.29703849411147, -0.00000000000000 ]
      - [ -0.10995734253729,  0.00000000000000 ]
    - # atom 4
      - [ -0.00060263081531, -0.00000000000000 ]
      - [ -0.29703849411147, -0.00000000000000 ]
      - [ -0.10995734253729,  0.00000000000000 ]
    - # atom 5
      - [ -0.00073608703271,  0.00000000000000 ]
      - [ -0.36281945459180, -0.00000000000000 ]
      - [ -0.13430805716639,  0.00000000000000 ]
    - # atom 6
      - [ -0.00073608703271,  0.00000000000000 ]
      - [ -0.36281945459180, -0.00000000000000 ]
      - [ -0.13430805716639,  0.00000000000000 ]
    - # atom 7
      - [ -0.00073608703271, -0.00000000000000 ]
      - [ -0.36281945459180, -0.00000000000000 ]
      - [ -0.13430805716639,  0.00000000000000 ]
    - # atom 8
      - [ -0.00073608703271,  0.00000000000000 ]
      - [ -0.36281945459180, -0.00000000000000 ]
      - [ -0.13430805716639,  0.00000000000000 ]
  - # 2
    frequency:   -0.1554240268
    eigenvector:
    - # atom 1
      - [ -0.31077378885198,  0.00000000000000 ]
      - [  0.02179114513434,  0.00000000000000 ]
      - [ -0.05716332287483,  0.00000000000000 ]
    - # atom 2
      - [ -0.31077378885198,  0.00000000000000 ]
      - [  0.02179114513434,  0.00000000000000 ]
      - [ -0.05716332287483,  0.00000000000000 ]
    - # atom 3
      - [ -0.31077378885198,  0.00000000000000 ]
      - [  0.02179114513434,  0.00000000000000 ]
      - [ -0.05716332287483,  0.00000000000000 ]
    - # atom 4
      - [ -0.31077378885198, -0.00000000000000 ]
      - [  0.02179114513434,  0.00000000000000 ]
      - [ -0.05716332287483,  0.00000000000000 ]
    - # atom 5
      - [ -0.37959651293677, -0.00000000000000 ]
      - [  0.02661692524473,  0.00000000000000 ]
      - [ -0.06982248442290,  0.00000000000000 ]
    - # atom 6
      - [ -0.37959651293677, -0.00000000000000 ]
      - [  0.02661692524473,  0.00000000000000 ]
      - [ -0.06982248442291,  0.00000000000000 ]
    - # atom 7
      - [ -0.37959651293677, -0.00000000000000 ]
      - [  0.02661692524473,  0.00000000000000 ]
      - [ -0.06982248442291,  0.00000000000000 ]
    - # atom 8
      - [ -0.37959651293677,  0.00000000000000 ]
      - [  0.02661692524473,  0.00000000000000 ]
      - [ -0.06982248442291,  0.00000000000000 ]
  - # 3
    frequency:   -0.1554240268
    eigenvector:
    - # atom 1
      - [  0.06117300323230, -0.00000000000000 ]
      - [  0.10777813477462,  0.00000000000000 ]
      - [ -0.29148685161739,  0.00000000000000 ]
    - # atom 2
      - [  0.06117300323230, -0.00000000000000 ]
      - [  0.10777813477462,  0.00000000000000 ]
      - [ -0.29148685161739,  0.00000000000000 ]
    - # atom 3
      - [  0.06117300323230, -0.00000000000000 ]
      - [  0.10777813477462,  0.00000000000000 ]
      - [ -0.29148685161739,  0.00000000000000 ]
    - # atom 4
      - [  0.06117300323230, -0.00000000000000 ]
      - [  0.10777813477462,  0.00000000000000 ]
      - [ -0.29148685161739,  0.00000000000000 ]
    - # atom 5
      - [  0.07472013260394,  0.00000000000000 ]
      - [  0.13164625074208,  0.00000000000000 ]
      - [ -0.35603836748787,  0.00000000000000 ]
    - # atom 6
      - [  0.07472013260394, -0.00000000000000 ]
      - [  0.13164625074208,  0.00000000000000 ]
      - [ -0.35603836748787,  0.00000000000000 ]
    - # atom 7
      - [  0.07472013260394, -0.00000000000000 ]
      - [  0.13164625074208,  0.00000000000000 ]
      - [ -0.35603836748787,  0.00000000000000 ]
    - # atom 8
      - [  0.07472013260394,  0.00000000000000 ]
      - [  0.13164625074208,  0.00000000000000 ]
      - [ -0.35603836748787,  0.00000000000000 ]
  - # 4
    frequency:   10.1371605210
    eigenvector:
    - # atom 1
      - [  0.49025187987836,  0.00000000000000 ]
      - [ -0.01798114280028, -0.00000000000000 ]
      - [ -0.00399941485146, -0.00000000000000 ]
    - # atom 2
      - [ -0.49025187987836,  0.00000000000000 ]
      - [  0.02163504682156, -0.00000000000000 ]
      - [  0.00033057470361, -0.00000000000000 ]
    - # atom 3
      - [  0.00632759359999,  0.00000000000000 ]
      - [  0.01798114280028,  0.00000000000000 ]
      - [ -0.00033057470361,  0.00000000000000 ]
    - # atom 4
      - [ -0.00632759359999, -0.00000000000000 ]
      - [ -0.02163504682156,  0.00000000000000 ]
      - [  0.00399941485146,  0.00000000000000 ]
    - # atom 5
      - [ -0.50783474727741, -0.00000000000000 ]
      - [  0.01862603588997,  0.00000000000000 ]
      - [  0.00414285373236,  0.00000000000000 ]
    - # atom 6
      - [  0.50783474727741,  0.00000000000000 ]
      - [ -0.02241098705769,  0.00000000000000 ]
      - [ -0.00034243075438,  0.00000000000000 ]
    - # atom 7
      - [ -0.00655453253443, -0.00000000000000 ]
      - [ -0.01862603588997, -0.00000000000000 ]
      - [  0.00034243075438, -0.00000000000000 ]
    - # atom 8
      - [  0.00655453253442,  0.00000000000000 ]
      - [  0.02241098705769, -0.00000000000000 ]
      - [ -0.00414285373236, -0.00000000000000 ]
  - # 5
    frequency:   10.1371605210
    eigenvector:
    - # atom 1
      - [ -0.01394292114262,  0.00000000000000 ]
      - [ -0.20484409536496, -0.00000000000000 ]
      - [  0.36815773557714, -0.00000000000000 ]
    - # atom 2
      - [  0.01394292114262,  0.00000000000000 ]
      - [  0.19273966785823, -0.00000000000000 ]
      - [  0.14914971249447, -0.00000000000000 ]
    - # atom 3
      - [  0.06406717167747, -0.00000000000000 ]
      - [  0.20484409536496,  0.00000000000000 ]
      - [ -0.14914971249447,  0.00000000000000 ]
    - # atom 4
      - [ -0.06406717167747,  0.00000000000000 ]
      - [ -0.19273966785823,  0.00000000000000 ]
      - [ -0.36815773557714,  0.00000000000000 ]
    - # atom 5
      - [  0.01444298354660,  0.00000000000000 ]
      - [  0.21219082204590,  0.00000000000000 ]
      - [ -0.38136170054346,  0.00000000000000 ]
    - # atom 6
      - [ -0.01444298354660,  0.00000000000000 ]
      - [ -0.19965226964842,  0.00000000000000 ]
      - [ -0.15449896198240,  0.00000000000000 ]
    - # atom 7
      - [ -0.06636493866312,  0.00000000000000 ]
      - [ -0.21219082204590, -0.00000000000000 ]
      - [  0.15449896198240, -0.00000000000000 ]
    - # atom 8
      - [  0.06636493866312, -0.00000000000000 ]
      - [  0.19965226964842, -0.00000000000000 ]
      - [  0.38136170054346, -0.00000000000000 ]
  - # 6
    frequency:   10.1371605210
    eigenvector:
    - # atom 1
      - [  0.02521103222561,  0.00000000000000 ]
      - [  0.24183023666283,  0.00000000000000 ]
      - [  0.29458128102599, -0.00000000000000 ]
    - # atom 2
      - [ -0.02521103222561,  0.00000000000000 ]
      - [ -0.27675480104768, -0.00000000000000 ]
      - [  0.02290880371953,  0.00000000000000 ]
    - # atom 3
      - [ -0.13483627731141, -0.00000000000000 ]
      - [ -0.24183023666283, -0.00000000000000 ]
      - [ -0.02290880371953, -0.00000000000000 ]
    - # atom 4
      - [  0.13483627731141,  0.00000000000000 ]
      - [  0.27675480104768,  0.00000000000000 ]
      - [ -0.29458128102599,  0.00000000000000 ]
    - # atom 5
      - [ -0.02611522505956,  0.00000000000000 ]
      - [ -0.25050347007374, -0.00000000000000 ]
      - [ -0.30514642889204,  0.00000000000000 ]
    - # atom 6
      - [  0.02611522505956,  0.00000000000000 ]
      - [  0.28668060280102,  0.00000000000000 ]
      - [ -0.02373042720453, -0.00000000000000 ]
    - # atom 7
      - [  0.13967217592160,  0.00000000000000 ]
      - [  0.25050347007374,  0.00000000000000 ]
      - [  0.02373042720453,  0.00000000000000 ]
    - # atom 8
      - [ -0.13967217592160, -0.00000000000000 ]
      - [ -0.28668060280102, -0.00000000000000 ]
      - [  0.30514642889204, -0.00000000000000 ]
  - # 7
    frequency:   10.1371605210
    eigenvector:
    - # atom 1
      - [ -0.00418450352854,  0.00000000000000 ]
      - [  0.04377408686209,  0.00000000000000 ]
      - [  0.07641410127479, -0.00000000000000 ]
    - # atom 2
      - [  0.00418450352854,  0.00000000000000 ]
      - [  0.23460216582813,  0.00000000000000 ]
      - [ -0.30784812108148, -0.00000000000000 ]
    - # atom 3
      - [ -0.28915913961438, -0.00000000000000 ]
      - [ -0.04377408686209, -0.00000000000000 ]
      - [  0.30784812108148,  0.00000000000000 ]
    - # atom 4
      - [  0.28915913961438,  0.00000000000000 ]
      - [ -0.23460216582813, -0.00000000000000 ]
      - [ -0.07641410127479,  0.00000000000000 ]
    - # atom 5
      - [  0.00433458060870,  0.00000000000000 ]
      - [ -0.04534404303442, -0.00000000000000 ]
      - [ -0.07915469048062,  0.00000000000000 ]
    - # atom 6
      - [ -0.00433458060870,  0.00000000000000 ]
      - [ -0.24301616471847, -0.00000000000000 ]
      - [  0.31888908372576,  0.00000000000000 ]
    - # atom 7
      - [  0.29952982255867,  0.00000000000000 ]
      - [  0.04534404303442,  0.00000000000000 ]
      - [ -0.31888908372576, -0.00000000000000 ]
    - # atom 8
      - [ -0.29952982255867, -0.00000000000000 ]
      - [  0.24301616471847,  0.00000000000000 ]
      - [  0.07915469048062, -0.00000000000000 ]
  - # 8
    frequency:   10.1371605210
    eigenvector:
    - # atom 1
      - [  0.00000000000000,  0.00000000000000 ]
      - [ -0.25646840546931, -0.00000000000000 ]
      - [ -0.08408317233297, -0.00000000000000 ]
    - # atom 2
      - [  0.00000000000000,  0.00000000000000 ]
      - [ -0.12918160228886, -0.00000000000000 ]
      - [  0.17227235321149,  0.00000000000000 ]
    - # atom 3
      - [ -0.34926032209043, -0.00000000000000 ]
      - [  0.25646840546931,  0.00000000000000 ]
      - [ -0.17227235321149, -0.00000000000000 ]
    - # atom 4
      - [  0.34926032209043,  0.00000000000000 ]
      - [  0.12918160228886,  0.00000000000000 ]
      - [  0.08408317233297,  0.00000000000000 ]
    - # atom 5
      - [  0.00000000000000,  0.00000000000000 ]
      - [  0.26566663631858,  0.00000000000000 ]
      - [  0.08709881251774,  0.00000000000000 ]
    - # atom 6
      - [  0.00000000000000,  0.00000000000000 ]
      - [  0.13381469616706,  0.00000000000000 ]
      - [ -0.17845089544123, -0.00000000000000 ]
    - # atom 7
      - [  0.36178653194931,  0.00000000000000 ]
      - [ -0.26566663631858, -0.00000000000000 ]
      - [  0.17845089544123,  0.00000000000000 ]
    - # atom 8
      - [ -0.36178653194931, -0.00000000000000 ]
      - [ -0.13381469616706, -0.00000000000000 ]
      - [ -0.08709881251774, -0.00000000000000 ]
  - # 9
    frequency:   10.1371605210
    eigenvector:
    - # atom 1
      - [  0.00016888244470,  0.00000000000000 ]
      - [  0.26969602066016,  0.00000000000000 ]
      - [ -0.07714341224393, -0.00000000000000 ]
    - # atom 2
      - [ -0.00016888244470,  0.00000000000000 ]
      - [  0.23507128325258, -0.00000000000000 ]
      - [  0.30655449250027, -0.00000000000000 ]
    - # atom 3
      - [ -0.11520938457974,  0.00000000000000 ]
      - [ -0.26969602066016, -0.00000000000000 ]
      - [ -0.30655449250027,  0.00000000000000 ]
    - # atom 4
      - [  0.11520938457974, -0.00000000000000 ]
      - [ -0.23507128325258,  0.00000000000000 ]
      - [  0.07714341224393,  0.00000000000000 ]
    - # atom 5
      - [ -0.00017493940797, -0.00000000000000 ]
      - [ -0.27936865948919, -0.00000000000000 ]
      - [  0.07991015816346,  0.00000000000000 ]
    - # atom 6
      - [  0.00017493940797, -0.00000000000000 ]
      - [ -0.24350210702378,  0.00000000000000 ]
      - [ -0.31754905919842,  0.00000000000000 ]
    - # atom 7
      - [  0.11934136533358, -0.00000000000000 ]
      - [  0.27936865948919,  0.00000000000000 ]
      - [  0.31754905919842, -0.00000000000000 ]
    - # atom 8
      - [ -0.11934136533358,  0.00000000000000 ]
      - [  0.24350210702378, -0.00000000000000 ]
      - [ -0.07991015816346, -0.00000000000000 ]
  - # 10
    frequency:   17.0767478889
    eigenvector:
    - # atom 1
      - [ -0.35013148671300,  0.00000000000000 ]
      - [ -0.18560316614059,  0.00000000000000 ]
      - [ -0.00340981574187,  0.00000000000000 ]
    - # atom 2
      - [ -0.35013148671300,  0.00000000000000 ]
      - [  0.18560316614059, -0.00000000000000 ]
      - [  0.00340981574187, -0.00000000000000 ]
    - # atom 3
      - [  0.35013148671300, -0.00000000000000 ]
      - [ -0.18560316614059,  0.00000000000000 ]
      - [  0.00340981574187, -0.00000000000000 ]
    - # atom 4
      - [  0.35013148671300,  0.00000000000000 ]
      - [  0.18560316614059, -0.00000000000000 ]
      - [ -0.00340981574187,  0.00000000000000 ]
    - # atom 5
      - [ -0.26935723064914, -0.00000000000000 ]
      - [ -0.14278508711306,  0.00000000000000 ]
      - [ -0.00262318174773,  0.00000000000000 ]
    - # atom 6
      - [ -0.26935723064914,  0.00000000000000 ]
      - [  0.14278508711306, -0.00000000000000 ]
      - [  0.00262318174774, -0.00000000000000 ]
    - # atom 7
      - [  0.26935723064914, -0.00000000000000 ]
      - [ -0.14278508711306,  0.00000000000000 ]
      - [  0.00262318174774, -0.00000000000000 ]
    - # atom 8
      - [  0.26935723064914,  0.00000000000000 ]
      - [  0.14278508711306, -0.00000000000000 ]
      - [ -0.00262318174774,  0.00000000000000 ]
  - # 11
    frequency:   17.0767478889
    eigenvector:
    - # atom 1
      - [ -0.18534076454584,  0.00000000000000 ]
      - [  0.34992784319928, -0.00000000000000 ]
      - [ -0.01585956065368, -0.00000000000000 ]
    - # atom 2
      - [ -0.18534076454584,  0.00000000000000 ]
      - [ -0.34992784319928,  0.00000000000000 ]
      - [  0.01585956065368,  0.00000000000000 ]
    - # atom 3
      - [  0.18534076454584, -0.00000000000000 ]
      - [  0.34992784319928, -0.00000000000000 ]
      - [  0.01585956065368,  0.00000000000000 ]
    - # atom 4
      - [  0.18534076454584, -0.00000000000000 ]
      - [ -0.34992784319928,  0.00000000000000 ]
      - [ -0.01585956065368, -0.00000000000000 ]
    - # atom 5
      - [ -0.14258322075838,  0.00000000000000 ]
      - [  0.26920056706709, -0.00000000000000 ]
      - [ -0.01220080883639, -0.00000000000000 ]
    - # atom 6
      - [ -0.14258322075838,  0.00000000000000 ]
      - [ -0.26920056706709,  0.00000000000000 ]
      - [  0.01220080883639,  0.00000000000000 ]
    - # atom 7
      - [  0.14258322075838,  0.00000000000000 ]
      - [  0.26920056706709, -0.00000000000000 ]
      - [  0.01220080883639,  0.00000000000000 ]
    - # atom 8
      - [  0.14258322075838, -0.00000000000000 ]
      - [ -0.26920056706709,  0.00000000000000 ]
      - [ -0.01220080883639, -0.00000000000000 ]
  - # 12
    frequency:   17.0767478889
    eigenvector:
    - # atom 1
      - [  0.01043854024133,  0.00000000000000 ]
      - [ -0.01241730184667,  0.00000000000000 ]
      - [ -0.39596599299074,  0.00000000000000 ]
    - # atom 2
      - [  0.01043854024133, -0.00000000000000 ]
      - [  0.01241730184667, -0.00000000000000 ]
      - [  0.39596599299074, -0.00000000000000 ]
    - # atom 3
      - [ -0.01043854024133, -0.00000000000000 ]
      - [ -0.01241730184667,  0.00000000000000 ]
      - [  0.39596599299074, -0.00000000000000 ]
    - # atom 4
      - [ -0.01043854024133,  0.00000000000000 ]
      - [  0.01241730184667, -0.00000000000000 ]
      - [ -0.39596599299074,  0.00000000000000 ]
    - # atom 5
      - [  0.00803040114392,  0.00000000000000 ]
      - [ -0.00955266853876,  0.00000000000000 ]
      - [ -0.30461785743550,  0.00000000000000 ]
    - # atom 6
      - [  0.00803040114392,  0.00000000000000 ]
      - [  0.00955266853876, -0.00000000000000 ]
      - [  0.30461785743550, -0.00000000000000 ]
    - # atom 7
      - [ -0.00803040114392, -0.00000000000000 ]
      - [ -0.00955266853876,  0.00000000000000 ]
      - [  0.30461785743550, -0.00000000000000 ]
    - # atom 8
      - [ -0.00803040114392,  0.00000000000000 ]
      - [  0.00955266853876, -0.00000000000000 ]
      - [ -0.30461785743550,  0.00000000000000 ]
  - # 13
    frequency:   19.3538144856
    eigenvector:
    - # atom 1
      - [  0.08202641633302,  0.00000000000000 ]
      - [ -0.37276530699581, -0.00000000000000 ]
      - [ -0.06320479094266, -0.00000000000000 ]
    - # atom 2
      - [  0.08202641633302,  0.00000000000000 ]
      - [ -0.37276530699581, -0.00000000000000 ]
      - [ -0.06320479094266, -0.00000000000000 ]
    - # atom 3
      - [  0.08202641633302,  0.00000000000000 ]
      - [ -0.37276530699581, -0.00000000000000 ]
      - [ -0.06320479094266, -0.00000000000000 ]
    - # atom 4
      - [  0.08202641633301,  0.00000000000000 ]
      - [ -0.37276530699581, -0.00000000000000 ]
      - [ -0.06320479094266, -0.00000000000000 ]
    - # atom 5
      - [ -0.06715462160741, -0.00000000000000 ]
      - [  0.30518111431376,  0.00000000000000 ]
      - [  0.05174544993284,  0.00000000000000 ]
    - # atom 6
      - [ -0.06715462160741, -0.00000000000000 ]
      - [  0.30518111431376,  0.00000000000000 ]
      - [  0.05174544993284,  0.00000000000000 ]
    - # atom 7
      - [ -0.06715462160741, -0.00000000000000 ]
      - [  0.30518111431376,  0.00000000000000 ]
      - [  0.05174544993284,  0.00000000000000 ]
    - # atom 8
      - [ -0.06715462160741, -0.00000000000000 ]
      - [  0.30518111431376,  0.00000000000000 ]
      - [  0.05174544993284,  0.00000000000000 ]
  - # 14
    frequency:   19.3538144856
    eigenvector:
    - # atom 1
      - [  0.00443540156756,  0.00000000000000 ]
      - [ -0.06372197536757,  0.00000000000000 ]
      - [  0.38157173603716, -0.00000000000000 ]
    - # atom 2
      - [  0.00443540156756, -0.00000000000000 ]
      - [ -0.06372197536757,  0.00000000000000 ]
      - [  0.38157173603716, -0.00000000000000 ]
    - # atom 3
      - [  0.00443540156756,  0.00000000000000 ]
      - [ -0.06372197536757,  0.00000000000000 ]
      - [  0.38157173603716, -0.00000000000000 ]
    - # atom 4
      - [  0.00443540156756, -0.00000000000000 ]
      - [ -0.06372197536757,  0.00000000000000 ]
      - [  0.38157173603716, -0.00000000000000 ]
    - # atom 5
      - [ -0.00363124133983,  0.00000000000000 ]
      - [  0.05216886626514, -0.00000000000000 ]
      - [ -0.31239089424104,  0.00000000000000 ]
    - # atom 6
      - [ -0.00363124133983,  0.00000000000000 ]
      - [  0.05216886626515, -0.00000000000000 ]
      - [ -0.31239089424104,  0.00000000000000 ]
    - # atom 7
      - [ -0.00363124133983,  0.00000000000000 ]
      - [  0.05216886626514, -0.00000000000000 ]
      - [ -0.31239089424104,  0.00000000000000 ]
    - # atom 8
      - [ -0.00363124133983, -0.00000000000000 ]
      - [  0.05216886626514, -0.00000000000000 ]
      - [ -0.31239089424104,  0.00000000000000 ]
  - # 15
    frequency:   19.3538144856
    eigenvector:
    - # atom 1
      - [ -0.37805971341935,  0.00000000000000 ]
      - [ -0.08162529283131, -0.00000000000000 ]
      - [ -0.00923673826117, -0.00000000000000 ]
    - # atom 2
      - [ -0.37805971341935,  0.00000000000000 ]
      - [ -0.08162529283131, -0.00000000000000 ]
      - [ -0.00923673826117, -0.00000000000000 ]
    - # atom 3
      - [ -0.37805971341935,  0.00000000000000 ]
      - [ -0.08162529283131, -0.00000000000000 ]
      - [ -0.00923673826117, -0.00000000000000 ]
    - # atom 4
      - [ -0.37805971341935,  0.00000000000000 ]
      - [ -0.08162529283131, -0.00000000000000 ]
      - [ -0.00923673826117, -0.00000000000000 ]
    - # atom 5
      - [  0.30951561868325,  0.00000000000000 ]
      - [  0.06682622377926,  0.00000000000000 ]
      - [  0.00756207195859,  0.00000000000000 ]
    - # atom 6
      - [  0.30951561868325, -0.00000000000000 ]
      - [  0.06682622377926,  0.00000000000000 ]
      - [  0.00756207195859,  0.00000000000000 ]
    - # atom 7
      - [  0.30951561868325, -0.00000000000000 ]
      - [  0.06682622377926,  0.00000000000000 ]
      - [  0.00756207195859,  0.00000000000000 ]
    - # atom 8
      - [  0.30951561868325, -0.00000000000000 ]
      - [  0.06682622377926,  0.00000000000000 ]
      - [  0.00756207195859,  0.00000000000000 ]
  - # 16
    frequency:   20.4386265844
    eigenvector:
    - # atom 1
      - [  0.02160812245805,  0.00000000000000 ]
      - [  0.06986824436816, -0.00000000000000 ]
      - [ -0.05717083252198, -0.00000000000000 ]
    - # atom 2
      - [ -0.02160812245806,  0.00000000000000 ]
      - [  0.08490306833505, -0.00000000000000 ]
      - [  0.08537068750197,  0.00000000000000 ]
    - # atom 3
      - [  0.48548108364078, -0.00000000000000 ]
      - [ -0.06986824436816,  0.00000000000000 ]
      - [ -0.08537068750197, -0.00000000000000 ]
    - # atom 4
      - [ -0.48548108364078,  0.00000000000000 ]
      - [ -0.08490306833505,  0.00000000000000 ]
      - [  0.05717083252198,  0.00000000000000 ]
    - # atom 5
      - [  0.02085997996887, -0.00000000000000 ]
      - [  0.06744918170513, -0.00000000000000 ]
      - [ -0.05519139497322, -0.00000000000000 ]
    - # atom 6
      - [ -0.02085997996887, -0.00000000000000 ]
      - [  0.08196345185486, -0.00000000000000 ]
      - [  0.08241488054673,  0.00000000000000 ]
    - # atom 7
      - [  0.46867217175721, -0.00000000000000 ]
      - [ -0.06744918170513,  0.00000000000000 ]
      - [ -0.08241488054673, -0.00000000000000 ]
    - # atom 8
      - [ -0.46867217175721,  0.00000000000000 ]
      - [ -0.08196345185486,  0.00000000000000 ]
      - [  0.05519139497321,  0.00000000000000 ]
  - # 17
    frequency:   20.4386265844
    eigenvector:
    - # atom 1
      - [  0.08914919832786, -0.00000000000000 ]
      - [  0.17790542996233, -0.00000000000000 ]
      - [ -0.42535756572121,  0.00000000000000 ]
    - # atom 2
      - [ -0.08914919832786,  0.00000000000000 ]
      - [  0.15485091266202, -0.00000000000000 ]
      - [  0.03791811759542,  0.00000000000000 ]
    - # atom 3
      - [ -0.11341069352450,  0.00000000000000 ]
      - [ -0.17790542996233,  0.00000000000000 ]
      - [ -0.03791811759542, -0.00000000000000 ]
    - # atom 4
      - [  0.11341069352450, -0.00000000000000 ]
      - [ -0.15485091266202,  0.00000000000000 ]
      - [  0.42535756572121, -0.00000000000000 ]
    - # atom 5
      - [  0.08606256721147, -0.00000000000000 ]
      - [  0.17174577349658, -0.00000000000000 ]
      - [ -0.41063032282309,  0.00000000000000 ]
    - # atom 6
      - [ -0.08606256721147, -0.00000000000000 ]
      - [  0.14948947751298, -0.00000000000000 ]
      - [  0.03660527077413,  0.00000000000000 ]
    - # atom 7
      - [ -0.10948405164628,  0.00000000000000 ]
      - [ -0.17174577349658,  0.00000000000000 ]
      - [ -0.03660527077413, -0.00000000000000 ]
    - # atom 8
      - [  0.10948405164628, -0.00000000000000 ]
      - [ -0.14948947751298,  0.00000000000000 ]
      - [  0.41063032282309, -0.00000000000000 ]
  - # 18
    frequency:   20.4386265844
    eigenvector:
    - # atom 1
      - [  0.08300443245173,  0.00000000000000 ]
      - [ -0.24615956647671, -0.00000000000000 ]
      - [  0.05920633260141, -0.00000000000000 ]
    - # atom 2
      - [ -0.08300443245173, -0.00000000000000 ]
      - [  0.41675565689217, -0.00000000000000 ]
      - [ -0.11811345185270, -0.00000000000000 ]
    - # atom 3
      - [ -0.01341013176217,  0.00000000000000 ]
      - [  0.24615956647671,  0.00000000000000 ]
      - [  0.11811345185270,  0.00000000000000 ]
    - # atom 4
      - [  0.01341013176217, -0.00000000000000 ]
      - [ -0.41675565689217,  0.00000000000000 ]
      - [ -0.05920633260141,  0.00000000000000 ]
    - # atom 5
      - [  0.08013055283408,  0.00000000000000 ]
      - [ -0.23763673293770, -0.00000000000000 ]
      - [  0.05715641951276, -0.00000000000000 ]
    - # atom 6
      - [ -0.08013055283408,  0.00000000000000 ]
      - [  0.40232623966102, -0.00000000000000 ]
      - [ -0.11402398540105, -0.00000000000000 ]
    - # atom 7
      - [ -0.01294582999897,  0.00000000000000 ]
      - [  0.23763673293770,  0.00000000000000 ]
      - [  0.11402398540106,  0.00000000000000 ]
    - # atom 8
      - [  0.01294582999897, -0.00000000000000 ]
      - [ -0.40232623966102,  0.00000000000000 ]
      - [ -0.05715641951276,  0.00000000000000 ]
  - # 19
    frequency:   20.4386265844
    eigenvector:
    - # atom 1
      - [  0.04595458403351, -0.00000000000000 ]
      - [ -0.36137510262894, -0.00000000000000 ]
      - [ -0.24987965193731, -0.00000000000000 ]
    - # atom 2
      - [ -0.04595458403351, -0.00000000000000 ]
      - [ -0.21501798413862,  0.00000000000000 ]
      - [ -0.10724087842210, -0.00000000000000 ]
    - # atom 3
      - [  0.07699731121890,  0.00000000000000 ]
      - [  0.36137510262894,  0.00000000000000 ]
      - [  0.10724087842210,  0.00000000000000 ]
    - # atom 4
      - [ -0.07699731121890, -0.00000000000000 ]
      - [  0.21501798413862, -0.00000000000000 ]
      - [  0.24987965193732,  0.00000000000000 ]
    - # atom 5
      - [  0.04436348897401,  0.00000000000000 ]
      - [ -0.34886313777244, -0.00000000000000 ]
      - [ -0.24122801711065, -0.00000000000000 ]
    - # atom 6
      - [ -0.04436348897401,  0.00000000000000 ]
      - [ -0.20757337204031,  0.00000000000000 ]
      - [ -0.10352785532716, -0.00000000000000 ]
    - # atom 7
      - [  0.07433141740108,  0.00000000000000 ]
      - [  0.34886313777244,  0.00000000000000 ]
      - [  0.10352785532716,  0.00000000000000 ]
    - # atom 8
      - [ -0.07433141740108, -0.00000000000000 ]
      - [  0.20757337204031, -0.00000000000000 ]
      - [  0.24122801711065,  0.00000000000000 ]
  - # 20
    frequency:   20.4386265844
    eigenvector:
    - # atom 1
      - [ -0.49131405879520,  0.00000000000000 ]
      - [ -0.04003412733197, -0.00000000000000 ]
      - [ -0.09306545771785,  0.00000000000000 ]
    - # atom 2
      - [  0.49131405879520,  0.00000000000000 ]
      - [  0.08212859911096, -0.00000000000000 ]
      - [ -0.01935031121017, -0.00000000000000 ]
    - # atom 3
      - [  0.00570946684588,  0.00000000000000 ]
      - [  0.04003412733197,  0.00000000000000 ]
      - [  0.01935031121017,  0.00000000000000 ]
    - # atom 4
      - [ -0.00570946684588, -0.00000000000000 ]
      - [ -0.08212859911096,  0.00000000000000 ]
      - [  0.09306545771785, -0.00000000000000 ]
    - # atom 5
      - [ -0.47430319060747, -0.00000000000000 ]
      - [ -0.03864801746830, -0.00000000000000 ]
      - [ -0.08984323314331,  0.00000000000000 ]
    - # atom 6
      - [  0.47430319060747, -0.00000000000000 ]
      - [  0.07928504365207, -0.00000000000000 ]
      - [ -0.01868034138640, -0.00000000000000 ]
    - # atom 7
      - [  0.00551178679541,  0.00000000000000 ]
      - [  0.03864801746830,  0.00000000000000 ]
      - [  0.01868034138640,  0.00000000000000 ]
    - # atom 8
      - [ -0.00551178679541, -0.00000000000000 ]
      - [ -0.07928504365207,  0.00000000000000 ]
      - [  0.08984323314331, -0.00000000000000 ]
  - # 21
    frequency:   20.4386265844
    eigenvector:
    - # atom 1
      - [ -0.00000000000000, -0.00000000000000 ]
      - [  0.17171025766775, -0.00000000000000 ]
      - [  0.00125777129040,  0.00000000000000 ]
    - # atom 2
      - [ -0.00000000000000,  0.00000000000000 ]
      - [ -0.03090469992170,  0.00000000000000 ]
      - [ -0.47355441979252,  0.00000000000000 ]
    - # atom 3
      - [  0.06411451418812, -0.00000000000000 ]
      - [ -0.17171025766775,  0.00000000000000 ]
      - [  0.47355441979252, -0.00000000000000 ]
    - # atom 4
      - [ -0.06411451418812,  0.00000000000000 ]
      - [  0.03090469992171, -0.00000000000000 ]
      - [ -0.00125777129039, -0.00000000000000 ]
    - # atom 5
      - [  0.00000000000000, -0.00000000000000 ]
      - [  0.16576509793259, -0.00000000000000 ]
      - [  0.00121422321509,  0.00000000000000 ]
    - # atom 6
      - [  0.00000000000000,  0.00000000000000 ]
      - [ -0.02983468010986,  0.00000000000000 ]
      - [ -0.45715844725601,  0.00000000000000 ]
    - # atom 7
      - [  0.06189466411412, -0.00000000000000 ]
      - [ -0.16576509793259,  0.00000000000000 ]
      - [  0.45715844725601, -0.00000000000000 ]
    - # atom 8
      - [ -0.06189466411412,  0.00000000000000 ]
      - [  0.02983468010986, -0.00000000000000 ]
      - [ -0.00121422321509, -0.00000000000000 ]