  32   32
1 1
     0.234885266250000     0.000000000000000     0.000000000000000
     0.000000000000000     0.234885266250000     0.000000000000000
     0.000000000000000     0.000000000000000     0.543543153750000
1 2
    -0.000081176250000    -0.000585890000000     0.000365265000000
    -0.000585890000000     0.000595351250000     0.000210885000000
     0.000365265000000     0.000210885000000    -0.002004591250000
1 3
    -0.000081176250000     0.000585890000000    -0.000365265000000
     0.000585890000000     0.000595351250000     0.000210885000000
    -0.000365265000000     0.000210885000000    -0.002004591250000
1 4
    -0.081597403750000     0.000000000000000     0.000000000000000
     0.000000000000000     0.000657606250000     0.002622520000000
     0.000000000000000     0.002622520000000    -0.020896641250000
1 5
     0.000933613750000     0.000000000000000     0.000000000000000
     0.000000000000000    -0.000419438750000    -0.000421770000000
     0.000000000000000    -0.000421770000000    -0.002004591250000
1 6
    -0.019906143750000    -0.035617465000000     0.002271170000000
    -0.035617465000000    -0.061033648750000    -0.001311260000000
     0.002271170000000    -0.001311260000000    -0.020896641250000
1 7
    -0.019906143750000     0.035617465000000    -0.002271170000000
     0.035617465000000    -0.061033648750000    -0.001311260000000
    -0.002271170000000    -0.001311260000000    -0.020896641250000
1 8
    -0.002193086250000     0.000000000000000     0.000000000000000
     0.000000000000000    -0.002193088750000     0.000000000000000
     0.000000000000000     0.000000000000000    -0.002591336250000
1 9
     0.001164277500000     0.000000000000000     0.000000000000000
     0.000000000000000     0.001164276250000    -0.000000001250000
     0.000000000000000     0.000000001250000    -0.001574296250000
1 10
     0.009587337500000     0.007924830000000     0.010629267500000
     0.007924830000000     0.000436531250000     0.006136811250000
     0.010540090000000     0.006085323750000    -0.007896576250000
1 11
     0.009587337500000    -0.007924830000000    -0.010629267500000
    -0.007924830000000     0.000436531250000     0.006136811250000
    -0.010540090000000     0.006085323750000    -0.007896576250000
1 12
    -0.004138872500000     0.000000000000000     0.000000000000000
     0.000000000000000     0.014162741250000    -0.012273621250000
     0.000000000000000    -0.012170648750000    -0.007896576250000
1 13
    -0.004138872500000     0.000000000000000     0.000000000000000
     0.000000000000000     0.014162741250000    -0.012273621250000
     0.000000000000000    -0.012170648750000    -0.007896576250000
1 14
     0.009587337500000    -0.007924830000000    -0.010629267500000
    -0.007924830000000     0.000436531250000     0.006136811250000
    -0.010540090000000     0.006085323750000    -0.007896576250000
1 15
     0.009587337500000     0.007924830000000     0.010629267500000
     0.007924830000000     0.000436531250000     0.006136811250000
     0.010540090000000     0.006085323750000    -0.007896576250000
1 16
     0.001164277500000     0.000000000000000     0.000000000000000
     0.000000000000000     0.001164276250000    -0.000000001250000
     0.000000000000000     0.000000001250000    -0.001574296250000
1 17
    -0.060792090000000     0.000000000000000     0.000000000000000
     0.000000000000000    -0.060792087500000    -0.000000001250000
     0.000000000000000    -0.000000002500000    -0.211929721250000
1 18
    -0.000143050000000     0.000255247500000    -0.000476877500000
     0.000255247500000    -0.000437785000000    -0.000275326250000
     0.000283362500000     0.000163600000000     0.000598483750000
1 19
    -0.000143050000000    -0.000255247500000     0.000476877500000
    -0.000255247500000    -0.000437785000000    -0.000275326250000
    -0.000283362500000     0.000163600000000     0.000598483750000
1 20
    -0.002516035000000     0.000000000000000     0.000000000000000
     0.000000000000000     0.000672382500000    -0.000498826250000
     0.000000000000000    -0.002735532500000    -0.000052801250000
1 21
    -0.000585152500000     0.000000000000000     0.000000000000000
     0.000000000000000     0.000004320000000     0.000550653750000
     0.000000000000000    -0.000327200000000     0.000598483750000
1 22
    -0.000124722500000    -0.001380627500000    -0.000431997500000
    -0.001380627500000    -0.001718932500000     0.000249413750000
    -0.002369042500000     0.001367767500000    -0.000052801250000
1 23
    -0.000124722500000     0.001380627500000     0.000431997500000
     0.001380627500000    -0.001718932500000     0.000249413750000
     0.002369042500000     0.001367767500000    -0.000052801250000
1 24
    -0.007429117500000     0.000000000000000     0.000000000000000
     0.000000000000000    -0.007429120000000    -0.000000001250000
     0.000000000000000    -0.000000000000000    -0.001714036250000
1 25
    -0.007429117500000     0.000000000000000     0.000000000000000
     0.000000000000000    -0.007429120000000    -0.000000001250000
     0.000000000000000    -0.000000000000000    -0.001714036250000
1 26
    -0.000124722500000     0.001380627500000     0.000431997500000
     0.001380627500000    -0.001718932500000     0.000249413750000
     0.002369042500000     0.001367767500000    -0.000052801250000
1 27
    -0.000124722500000    -0.001380627500000    -0.000431997500000
    -0.001380627500000    -0.001718932500000     0.000249413750000
    -0.002369042500000     0.001367767500000    -0.000052801250000
1 28
    -0.000585152500000     0.000000000000000     0.000000000000000
     0.000000000000000     0.000004320000000     0.000550653750000
     0.000000000000000    -0.000327200000000     0.000598483750000
1 29
    -0.002516035000000     0.000000000000000     0.000000000000000
     0.000000000000000     0.000672382500000    -0.000498826250000
     0.000000000000000    -0.002735532500000    -0.000052801250000
1 30
    -0.000143050000000    -0.000255247500000     0.000476877500000
    -0.000255247500000    -0.000437785000000    -0.000275326250000
    -0.000283362500000     0.000163600000000     0.000598483750000
1 31
    -0.000143050000000     0.000255247500000    -0.000476877500000
     0.000255247500000    -0.000437785000000    -0.000275326250000
     0.000283362500000     0.000163600000000     0.000598483750000
1 32
    -0.060792090000000     0.000000000000000     0.000000000000000
     0.000000000000000    -0.060792087500000    -0.000000001250000
     0.000000000000000    -0.000000002500000    -0.211929721250000
2 1
    -0.000081176250000    -0.000585890000000     0.000365265000000
    -0.000585890000000     0.000595351250000     0.000210885000000
     0.000365265000000     0.000210885000000    -0.002004591250000
2 2
     0.234885266250000     0.000000000000000     0.000000000000000
     0.000000000000000     0.234885266250000     0.000000000000000
     0.000000000000000     0.000000000000000     0.543543153750000
2 3
    -0.081597403750000    -0.000000000000000    -0.000000000000000
    -0.000000000000000     0.000657606250000     0.002622520000000
    -0.000000000000000     0.002622520000000    -0.020896641250000
2 4
    -0.000081176250000     0.000585890000000    -0.000365265000000
     0.000585890000000     0.000595351250000     0.000210885000000
    -0.000365265000000     0.000210885000000    -0.002004591250000
2 5
    -0.019906143750000    -0.035617465000000     0.002271170000000
    -0.035617465000000    -0.061033648750000    -0.001311260000000
     0.002271170000000    -0.001311260000000    -0.020896641250000
2 6
     0.000933613750000     0.000000000000000     0.000000000000000
     0.000000000000000    -0.000419438750000    -0.000421770000000
     0.000000000000000    -0.000421770000000    -0.002004591250000
2 7
    -0.002193086250000    -0.000000000000000    -0.000000000000000
    -0.000000000000000    -0.002193088750000    -0.000000000000000
    -0.000000000000000    -0.000000000000000    -0.002591336250000
2 8
    -0.019906143750000     0.035617465000000    -0.002271170000000
     0.035617465000000    -0.061033648750000    -0.001311260000000
    -0.002271170000000    -0.001311260000000    -0.020896641250000
2 9
     0.009587337500000     0.007924830000000     0.010629267500000
     0.007924830000000     0.000436531250000     0.006136811250000
     0.010540090000000     0.006085323750000    -0.007896576250000
2 10
     0.001164277500000     0.000000000000000     0.000000000000000
     0.000000000000000     0.001164276250000    -0.000000001250000
     0.000000000000000     0.000000001250000    -0.001574296250000
2 11
    -0.004138872500000    -0.000000000000000    -0.000000000000000
    -0.000000000000000     0.014162741250000    -0.012273621250000
    -0.000000000000000    -0.012170648750000    -0.007896576250000
2 12
     0.009587337500000    -0.007924830000000    -0.010629267500000
    -0.007924830000000     0.000436531250000     0.006136811250000
    -0.010540090000000     0.006085323750000    -0.007896576250000
2 13
     0.009587337500000    -0.007924830000000    -0.010629267500000
    -0.007924830000000     0.000436531250000     0.006136811250000
    -0.010540090000000     0.006085323750000    -0.007896576250000
2 14
    -0.004138872500000    -0.000000000000000    -0.000000000000000
    -0.000000000000000     0.014162741250000    -0.012273621250000
    -0.000000000000000    -0.012170648750000    -0.007896576250000
2 15
     0.001164277500000     0.000000000000000     0.000000000000000
     0.000000000000000     0.001164276250000    -0.000000001250000
     0.000000000000000     0.000000001250000    -0.001574296250000
2 16
     0.009587337500000     0.007924830000000     0.010629267500000
     0.007924830000000     0.000436531250000     0.006136811250000
     0.010540090000000     0.006085323750000    -0.007896576250000
2 17
    -0.000143050000000     0.000255247500000    -0.000476877500000
     0.000255247500000    -0.000437785000000    -0.000275326250000
     0.000283362500000     0.000163600000000     0.000598483750000
2 18
    -0.060792090000000    -0.000000000000000    -0.000000000000000
    -0.000000000000000    -0.060792087500000    -0.000000001250000
    -0.000000000000000    -0.000000002500000    -0.211929721250000
2 19
    -0.002516035000000    -0.000000000000000    -0.000000000000000
    -0.000000000000000     0.000672382500000    -0.000498826250000
    -0.000000000000000    -0.002735532500000    -0.000052801250000
2 20
    -0.000143050000000    -0.000255247500000     0.000476877500000
    -0.000255247500000    -0.000437785000000    -0.000275326250000
    -0.000283362500000     0.000163600000000     0.000598483750000
2 21
    -0.000124722500000    -0.001380627500000    -0.000431997500000
    -0.001380627500000    -0.001718932500000     0.000249413750000
    -0.002369042500000     0.001367767500000    -0.000052801250000
2 22
    -0.000585152500000    -0.000000000000000    -0.000000000000000
    -0.000000000000000     0.000004320000000     0.000550653750000
    -0.000000000000000    -0.000327200000000     0.000598483750000
2 23
    -0.007429117500000    -0.000000000000000    -0.000000000000000
    -0.000000000000000    -0.007429120000000    -0.000000001250000
    -0.000000000000000    -0.000000000000000    -0.001714036250000
2 24
    -0.000124722500000     0.001380627500000     0.000431997500000
     0.001380627500000    -0.001718932500000     0.000249413750000
     0.002369042500000     0.001367767500000    -0.000052801250000
2 25
    -0.000124722500000     0.001380627500000     0.000431997500000
     0.001380627500000    -0.001718932500000     0.000249413750000
     0.002369042500000     0.001367767500000    -0.000052801250000
2 26
    -0.007429117500000    -0.000000000000000    -0.000000000000000
    -0.000000000000000    -0.007429120000000    -0.000000001250000
    -0.000000000000000    -0.000000000000000    -0.001714036250000
2 27
    -0.000585152500000    -0.000000000000000    -0.000000000000000
    -0.000000000000000     0.000004320000000     0.000550653750000
    -0.000000000000000    -0.000327200000000     0.000598483750000
2 28
    -0.000124722500000    -0.001380627500000    -0.000431997500000
    -0.001380627500000    -0.001718932500000     0.000249413750000
    -0.002369042500000     0.001367767500000    -0.000052801250000
2 29
    -0.000143050000000    -0.000255247500000     0.000476877500000
    -0.000255247500000    -0.000437785000000    -0.000275326250000
    -0.000283362500000     0.000163600000000     0.000598483750000
2 30
    -0.002516035000000    -0.000000000000000    -0.000000000000000
    -0.000000000000000     0.000672382500000    -0.000498826250000
    -0.000000000000000    -0.002735532500000    -0.000052801250000
2 31
    -0.060792090000000    -0.000000000000000    -0.000000000000000
    -0.000000000000000    -0.060792087500000    -0.000000001250000
    -0.000000000000000    -0.000000002500000    -0.211929721250000
2 32
    -0.000143050000000     0.000255247500000    -0.000476877500000
     0.000255247500000    -0.000437785000000    -0.000275326250000
     0.000283362500000     0.000163600000000     0.000598483750000
3 1
    -0.000081176250000     0.000585890000000    -0.000365265000000
     0.000585890000000     0.000595351250000     0.000210885000000
    -0.000365265000000     0.000210885000000    -0.002004591250000
3 2
    -0.081597403750000    -0.000000000000000    -0.000000000000000
    -0.000000000000000     0.000657606250000     0.002622520000000
    -0.000000000000000     0.002622520000000    -0.020896641250000
3 3
     0.234885266250000     0.000000000000000     0.000000000000000
     0.000000000000000     0.234885266250000     0.000000000000000
     0.000000000000000     0.000000000000000     0.543543153750000
3 4
    -0.000081176250000    -0.000585890000000     0.000365265000000
    -0.000585890000000     0.000595351250000     0.000210885000000
     0.000365265000000     0.000210885000000    -0.002004591250000
3 5
    -0.019906143750000     0.035617465000000    -0.002271170000000
     0.035617465000000    -0.061033648750000    -0.001311260000000
    -0.002271170000000    -0.001311260000000    -0.020896641250000
3 6
    -0.002193086250000    -0.000000000000000    -0.000000000000000
    -0.000000000000000    -0.002193088750000    -0.000000000000000
    -0.000000000000000    -0.000000000000000    -0.002591336250000
3 7
     0.000933613750000     0.000000000000000     0.000000000000000
     0.000000000000000    -0.000419438750000    -0.000421770000000
     0.000000000000000    -0.000421770000000    -0.002004591250000
3 8
    -0.019906143750000    -0.035617465000000     0.002271170000000
    -0.035617465000000    -0.061033648750000    -0.001311260000000
     0.002271170000000    -0.001311260000000    -0.020896641250000
3 9
     0.009587337500000    -0.007924830000000    -0.010629267500000
    -0.007924830000000     0.000436531250000     0.006136811250000
    -0.010540090000000     0.006085323750000    -0.007896576250000
3 10
    -0.004138872500000    -0.000000000000000    -0.000000000000000
    -0.000000000000000     0.014162741250000    -0.012273621250000
    -0.000000000000000    -0.012170648750000    -0.007896576250000
3 11
     0.001164277500000     0.000000000000000     0.000000000000000
     0.000000000000000     0.001164276250000    -0.000000001250000
     0.000000000000000     0.000000001250000    -0.001574296250000
3 12
     0.009587337500000     0.007924830000000     0.010629267500000
     0.007924830000000     0.000436531250000     0.006136811250000
     0.010540090000000     0.006085323750000    -0.007896576250000
3 13
     0.009587337500000     0.007924830000000     0.010629267500000
     0.007924830000000     0.000436531250000     0.006136811250000
     0.010540090000000     0.006085323750000    -0.007896576250000
3 14
     0.001164277500000     0.000000000000000     0.000000000000000
     0.000000000000000     0.001164276250000    -0.000000001250000
     0.000000000000000     0.000000001250000    -0.001574296250000
3 15
    -0.004138872500000    -0.000000000000000    -0.000000000000000
    -0.000000000000000     0.014162741250000    -0.012273621250000
    -0.000000000000000    -0.012170648750000    -0.007896576250000
3 16
     0.009587337500000    -0.007924830000000    -0.010629267500000
    -0.007924830000000     0.000436531250000     0.006136811250000
    -0.010540090000000     0.006085323750000    -0.007896576250000
3 17
    -0.000143050000000    -0.000255247500000     0.000476877500000
    -0.000255247500000    -0.000437785000000    -0.000275326250000
    -0.000283362500000     0.000163600000000     0.000598483750000
3 18
    -0.002516035000000    -0.000000000000000    -0.000000000000000
    -0.000000000000000     0.000672382500000    -0.000498826250000
    -0.000000000000000    -0.002735532500000    -0.000052801250000
3 19
    -0.060792090000000    -0.000000000000000    -0.000000000000000
    -0.000000000000000    -0.060792087500000    -0.000000001250000
    -0.000000000000000    -0.000000002500000    -0.211929721250000
3 20
    -0.000143050000000     0.000255247500000    -0.000476877500000
     0.000255247500000    -0.000437785000000    -0.000275326250000
     0.000283362500000     0.000163600000000     0.000598483750000
3 21
    -0.000124722500000     0.001380627500000     0.000431997500000
     0.001380627500000    -0.001718932500000     0.000249413750000
     0.002369042500000     0.001367767500000    -0.000052801250000
3 22
    -0.007429117500000    -0.000000000000000    -0.000000000000000
    -0.000000000000000    -0.007429120000000    -0.000000001250000
    -0.000000000000000    -0.000000000000000    -0.001714036250000
3 23
    -0.000585152500000    -0.000000000000000    -0.000000000000000
    -0.000000000000000     0.000004320000000     0.000550653750000
    -0.000000000000000    -0.000327200000000     0.000598483750000
3 24
    -0.000124722500000    -0.001380627500000    -0.000431997500000
    -0.001380627500000    -0.001718932500000     0.000249413750000
    -0.002369042500000     0.001367767500000    -0.000052801250000
3 25
    -0.000124722500000    -0.001380627500000    -0.000431997500000
    -0.001380627500000    -0.001718932500000     0.000249413750000
    -0.002369042500000     0.001367767500000    -0.000052801250000
3 26
    -0.000585152500000    -0.000000000000000    -0.000000000000000
    -0.000000000000000     0.000004320000000     0.000550653750000
    -0.000000000000000    -0.000327200000000     0.000598483750000
3 27
    -0.007429117500000    -0.000000000000000    -0.000000000000000
    -0.000000000000000    -0.007429120000000    -0.000000001250000
    -0.000000000000000    -0.000000000000000    -0.001714036250000
3 28
    -0.000124722500000     0.001380627500000     0.000431997500000
     0.001380627500000    -0.001718932500000     0.000249413750000
     0.002369042500000     0.001367767500000    -0.000052801250000
3 29
    -0.000143050000000     0.000255247500000    -0.000476877500000
     0.000255247500000    -0.000437785000000    -0.000275326250000
     0.000283362500000     0.000163600000000     0.000598483750000
3 30
    -0.060792090000000    -0.000000000000000    -0.000000000000000
    -0.000000000000000    -0.060792087500000    -0.000000001250000
    -0.000000000000000    -0.000000002500000    -0.211929721250000
3 31
    -0.002516035000000    -0.000000000000000    -0.000000000000000
    -0.000000000000000     0.000672382500000    -0.000498826250000
    -0.000000000000000    -0.002735532500000    -0.000052801250000
3 32
    -0.000143050000000    -0.000255247500000     0.000476877500000
    -0.000255247500000    -0.000437785000000    -0.000275326250000
    -0.000283362500000     0.000163600000000     0.000598483750000
4 1
    -0.081597403750000    -0.000000000000000    -0.000000000000000
    -0.000000000000000     0.000657606250000     0.002622520000000
    -0.000000000000000     0.002622520000000    -0.020896641250000
4 2
    -0.000081176250000     0.000585890000000    -0.000365265000000
     0.000585890000000     0.000595351250000     0.000210885000000
    -0.000365265000000     0.000210885000000    -0.002004591250000
4 3
    -0.000081176250000    -0.000585890000000     0.000365265000000
    -0.000585890000000     0.000595351250000     0.000210885000000
     0.000365265000000     0.000210885000000    -0.002004591250000
4 4
     0.234885266250000     0.000000000000000     0.000000000000000
     0.000000000000000     0.234885266250000     0.000000000000000
     0.000000000000000     0.000000000000000     0.543543153750000
4 5
    -0.002193086250000    -0.000000000000000    -0.000000000000000
    -0.000000000000000    -0.002193088750000    -0.000000000000000
    -0.000000000000000    -0.000000000000000    -0.002591336250000
4 6
    -0.019906143750000     0.035617465000000    -0.002271170000000
     0.035617465000000    -0.061033648750000    -0.001311260000000
    -0.002271170000000    -0.001311260000000    -0.020896641250000
4 7
    -0.019906143750000    -0.035617465000000     0.002271170000000
    -0.035617465000000    -0.061033648750000    -0.001311260000000
     0.002271170000000    -0.001311260000000    -0.020896641250000
4 8
     0.000933613750000     0.000000000000000     0.000000000000000
     0.000000000000000    -0.000419438750000    -0.000421770000000
     0.000000000000000    -0.000421770000000    -0.002004591250000
4 9
    -0.004138872500000    -0.000000000000000    -0.000000000000000
    -0.000000000000000     0.014162741250000    -0.012273621250000
    -0.000000000000000    -0.012170648750000    -0.007896576250000
4 10
     0.009587337500000    -0.007924830000000    -0.010629267500000
    -0.007924830000000     0.000436531250000     0.006136811250000
    -0.010540090000000     0.006085323750000    -0.007896576250000
4 11
     0.009587337500000     0.007924830000000     0.010629267500000
     0.007924830000000     0.000436531250000     0.006136811250000
     0.010540090000000     0.006085323750000    -0.007896576250000
4 12
     0.001164277500000     0.000000000000000     0.000000000000000
     0.000000000000000     0.001164276250000    -0.000000001250000
     0.000000000000000     0.000000001250000    -0.001574296250000
4 13
     0.001164277500000     0.000000000000000     0.000000000000000
     0.000000000000000     0.001164276250000    -0.000000001250000
     0.000000000000000     0.000000001250000    -0.001574296250000
4 14
     0.009587337500000     0.007924830000000     0.010629267500000
     0.007924830000000     0.000436531250000     0.006136811250000
     0.010540090000000     0.006085323750000    -0.007896576250000
4 15
     0.009587337500000    -0.007924830000000    -0.010629267500000
    -0.007924830000000     0.000436531250000     0.006136811250000
    -0.010540090000000     0.006085323750000    -0.007896576250000
4 16
    -0.004138872500000    -0.000000000000000    -0.000000000000000
    -0.000000000000000     0.014162741250000    -0.012273621250000
    -0.000000000000000    -0.012170648750000    -0.007896576250000
4 17
    -0.002516035000000    -0.000000000000000    -0.000000000000000
    -0.000000000000000     0.000672382500000    -0.000498826250000
    -0.000000000000000    -0.002735532500000    -0.000052801250000
4 18
    -0.000143050000000    -0.000255247500000     0.000476877500000
    -0.000255247500000    -0.000437785000000    -0.000275326250000
    -0.000283362500000     0.000163600000000     0.000598483750000
4 19
    -0.000143050000000     0.000255247500000    -0.000476877500000
     0.000255247500000    -0.000437785000000    -0.000275326250000
     0.000283362500000     0.000163600000000     0.000598483750000
4 20
    -0.060792090000000    -0.000000000000000    -0.000000000000000
    -0.000000000000000    -0.060792087500000    -0.000000001250000
    -0.000000000000000    -0.000000002500000    -0.211929721250000
4 21
    -0.007429117500000    -0.000000000000000    -0.000000000000000
    -0.000000000000000    -0.007429120000000    -0.000000001250000
    -0.000000000000000    -0.000000000000000    -0.001714036250000
4 22
    -0.000124722500000     0.001380627500000     0.000431997500000
     0.001380627500000    -0.001718932500000     0.000249413750000
     0.002369042500000     0.001367767500000    -0.000052801250000
4 23
    -0.000124722500000    -0.001380627500000    -0.000431997500000
    -0.001380627500000    -0.001718932500000     0.000249413750000
    -0.002369042500000     0.001367767500000    -0.000052801250000
4 24
    -0.000585152500000    -0.000000000000000    -0.000000000000000
    -0.000000000000000     0.000004320000000     0.000550653750000
    -0.000000000000000    -0.000327200000000     0.000598483750000
4 25
    -0.000585152500000    -0.000000000000000    -0.000000000000000
    -0.000000000000000     0.000004320000000     0.000550653750000
    -0.000000000000000    -0.000327200000000     0.000598483750000
4 26
    -0.000124722500000    -0.001380627500000    -0.000431997500000
    -0.001380627500000    -0.001718932500000     0.000249413750000
    -0.002369042500000     0.001367767500000    -0.000052801250000
4 27
    -0.000124722500000     0.001380627500000     0.000431997500000
     0.001380627500000    -0.001718932500000     0.000249413750000
     0.002369042500000     0.001367767500000    -0.000052801250000
4 28
    -0.007429117500000    -0.000000000000000    -0.000000000000000
    -0.000000000000000    -0.007429120000000    -0.000000001250000
    -0.000000000000000    -0.000000000000000    -0.001714036250000
4 29
    -0.060792090000000    -0.000000000000000    -0.000000000000000
    -0.000000000000000    -0.060792087500000    -0.000000001250000
    -0.000000000000000    -0.000000002500000    -0.211929721250000
4 30
    -0.000143050000000     0.000255247500000    -0.000476877500000
     0.000255247500000    -0.000437785000000    -0.000275326250000
     0.000283362500000     0.000163600000000     0.000598483750000
4 31
    -0.000143050000000    -0.000255247500000     0.000476877500000
    -0.000255247500000    -0.000437785000000    -0.000275326250000
    -0.000283362500000     0.000163600000000     0.000598483750000
4 32
    -0.002516035000000    -0.000000000000000    -0.000000000000000
    -0.000000000000000     0.000672382500000    -0.000498826250000
    -0.000000000000000    -0.002735532500000    -0.000052801250000
5 1
     0.000933613750000     0.000000000000000     0.000000000000000
     0.000000000000000    -0.000419438750000    -0.000421770000000
     0.000000000000000    -0.000421770000000    -0.002004591250000
5 2
    -0.019906143750000    -0.035617465000000     0.002271170000000
    -0.035617465000000    -0.061033648750000    -0.001311260000000
     0.002271170000000    -0.001311260000000    -0.020896641250000
5 3
    -0.019906143750000     0.035617465000000    -0.002271170000000
     0.035617465000000    -0.061033648750000    -0.001311260000000
    -0.002271170000000    -0.001311260000000    -0.020896641250000
5 4
    -0.002193086250000    -0.000000000000000    -0.000000000000000
    -0.000000000000000    -0.002193088750000    -0.000000000000000
    -0.000000000000000    -0.000000000000000    -0.002591336250000
5 5
     0.234885266250000     0.000000000000000     0.000000000000000
     0.000000000000000     0.234885266250000     0.000000000000000
     0.000000000000000     0.000000000000000     0.543543153750000
5 6
    -0.000081176250000    -0.000585890000000     0.000365265000000
    -0.000585890000000     0.000595351250000     0.000210885000000
     0.000365265000000     0.000210885000000    -0.002004591250000
5 7
    -0.000081176250000     0.000585890000000    -0.000365265000000
     0.000585890000000     0.000595351250000     0.000210885000000
    -0.000365265000000     0.000210885000000    -0.002004591250000
5 8
    -0.081597403750000    -0.000000000000000    -0.000000000000000
    -0.000000000000000     0.000657606250000     0.002622520000000
    -0.000000000000000     0.002622520000000    -0.020896641250000
5 9
    -0.004138872500000    -0.000000000000000    -0.000000000000000
    -0.000000000000000     0.014162741250000    -0.012273621250000
    -0.000000000000000    -0.012170648750000    -0.007896576250000
5 10
     0.009587337500000    -0.007924830000000    -0.010629267500000
    -0.007924830000000     0.000436531250000     0.006136811250000
    -0.010540090000000     0.006085323750000    -0.007896576250000
5 11
     0.009587337500000     0.007924830000000     0.010629267500000
     0.007924830000000     0.000436531250000     0.006136811250000
     0.010540090000000     0.006085323750000    -0.007896576250000
5 12
     0.001164277500000     0.000000000000000     0.000000000000000
     0.000000000000000     0.001164276250000    -0.000000001250000
     0.000000000000000     0.000000001250000    -0.001574296250000
5 13
     0.001164277500000     0.000000000000000     0.000000000000000
     0.000000000000000     0.001164276250000    -0.000000001250000
     0.000000000000000     0.000000001250000    -0.001574296250000
5 14
     0.009587337500000     0.007924830000000     0.010629267500000
     0.007924830000000     0.000436531250000     0.006136811250000
     0.010540090000000     0.006085323750000    -0.007896576250000
5 15
     0.009587337500000    -0.007924830000000    -0.010629267500000
    -0.007924830000000     0.000436531250000     0.006136811250000
    -0.010540090000000     0.006085323750000    -0.007896576250000
5 16
    -0.004138872500000    -0.000000000000000    -0.000000000000000
    -0.000000000000000     0.014162741250000    -0.012273621250000
    -0.000000000000000    -0.012170648750000    -0.007896576250000
5 17
    -0.000585152500000    -0.000000000000000    -0.000000000000000
    -0.000000000000000     0.000004320000000     0.000550653750000
    -0.000000000000000    -0.000327200000000     0.000598483750000
5 18
    -0.000124722500000    -0.001380627500000    -0.000431997500000
    -0.001380627500000    -0.001718932500000     0.000249413750000